LAMMPS (30 Oct 2019)
ERROR on proc 0: Cannot open input script in.lj (../input.cpp:256)
Last command: (unknown)
